# LAMMPS data file written by OVITO Basic 3.10.1

3 atoms
2 atom types

0.0 20.0 xlo xhi
0.0 20.0 ylo yhi
0.0 20.0 zlo zhi

Masses

1 15.9994  # O
2 1.00794  # H

Atoms  # atomic

1 1 10.000282 10.0 10.117109
2 2 9.217187 10.0 9.539403
3 2 10.778321 10.0 9.542894
