3
Lattice="20.0 0.0 0.0 0.0 20.0 0.0 0.0 0.0 20.0" Properties=species:S:1:pos:R:3:force:R:3 energy=0.014390054913 config_type=nep2xyz virial="0.04541714553962817 0.19559220319030013 0.25765571733304216 0.1394651754032027 0.8887562672837068 0.6062671426155766 0.6158496671515661 0.00842730383029855 0.29978995754083304" volume=8000000.0 pbc="T T T"
O	10.000282	10	10.117109	-0.24246754	0	-0.41752627
H	9.217187	10	9.539403	0.81142346	0	0.29908573
H	10.778321	10	9.542894	-0.56895591	0	0.11844054
