3
energy=0.014390054913 config_type=nep2xyz pbc="T T T" virial="0.04541714553962817 0.19559220319030013 0.25765571733304216 0.1394651754032027 0.8887562672837068 0.6062671426155766 0.6158496671515661 0.00842730383029855 0.29978995754083304" Lattice="200.0 0.0 0.0 0.0 200.0 0.0 0.0 0.0 200.0" volume=8000000.0 Properties=species:S:1:pos:R:3:force:R:3
O 0.000282 0.0 0.117109 -0.24246753914121 -0.0 -0.41752626838021
H -0.782813 0.0 -0.460597 0.8114234552616999 -0.0 0.29908572710505
H 0.778321 0.0 -0.457106 -0.5689559148196 -0.0 0.11844054127515999
3
energy=0.004882023355 config_type=nep2xyz pbc="T T T" virial="0.9211816330327813 0.013663715258136033 0.4438592743358606 0.8439872010463939 0.8756209575726992 0.8470631606878563 0.5592597661601953 0.884528421702674 0.16546672269365925" Lattice="200.0 0.0 0.0 0.0 200.0 0.0 0.0 0.0 200.0" volume=8000000.0 Properties=species:S:1:pos:R:3:force:R:3
O 0.000222 0.0 0.119469 -0.19002088565352998 -0.0 -0.6072955237483
H -0.76292 0.0 -0.478914 0.4402162412906 -0.0 0.37799851715418
H 0.759388 0.0 -0.476169 -0.25019535476981 -0.0 0.22929700572686
3
energy=0.01928222521 config_type=nep2xyz pbc="T T T" virial="0.6595021278603772 0.9872406353479455 0.7526910351921227 0.7360358725849647 0.13342292608938877 0.03143117452988775 0.18387968534972843 0.06410920454750224 0.6410345400730374" Lattice="200.0 0.0 0.0 0.0 200.0 0.0 0.0 0.0 200.0" volume=8000000.0 Properties=species:S:1:pos:R:3:force:R:3
O 0.001286 0.0 0.11607 -1.172832773365 -0.0 0.10571044064825
H -0.787949 0.0 -0.458595 0.9751774373918 -0.0 0.37921784612111004
H 0.767479 0.0 -0.442682 0.19765533510594 -0.0 -0.4849282859021
3
energy=0.0032858703516999996 config_type=nep2xyz pbc="T T T" virial="0.21755360360111853 0.4200340008367679 0.14387707690267248 0.890501576917158 0.9930640413210989 0.6768718759881213 0.16668196099986088 0.19895845539836787 0.40176123841684896" Lattice="200.0 0.0 0.0 0.0 200.0 0.0 0.0 0.0 200.0" volume=8000000.0 Properties=species:S:1:pos:R:3:force:R:3
O -0.000108 0.0 0.119723 0.09338750861784999 -0.0 -0.5298275719476
H -0.755486 0.0 -0.478882 0.16032349487251 -0.0 0.22807277023647998
H 0.7572 0.0 -0.480214 -0.25371100305673 -0.0 0.30175480214475
3
energy=0.01115209634 config_type=nep2xyz pbc="T T T" virial="0.21391373819294734 0.9496614088607183 0.274922519800437 0.06582446699657818 0.7967249164516359 0.7293893265624865 0.726256139240463 0.24772485795378207 0.35991363298647017" Lattice="200.0 0.0 0.0 0.0 200.0 0.0 0.0 0.0 200.0" volume=8000000.0 Properties=species:S:1:pos:R:3:force:R:3
O -0.000887 0.0 0.120739 0.7605225652368001 -0.0 -0.6546822285539
H -0.74246 0.0 -0.482108 -0.27355493955982996 -0.0 0.021397397288647
H 0.756577 0.0 -0.493082 -0.48696762611059996 -0.0 0.6332848342573
3
energy=0.006331778534 config_type=nep2xyz pbc="T T T" virial="0.5017230885019233 0.17680161773891778 0.6241349612040308 0.20496000311852058 0.9886111047378728 0.5305835526896296 0.12704831354431245 0.0001679077410747798 0.41557740843689717" Lattice="200.0 0.0 0.0 0.0 200.0 0.0 0.0 0.0 200.0" volume=8000000.0 Properties=species:S:1:pos:R:3:force:R:3
O -0.000889 0.0 0.119365 0.8068452547662 -0.0 -0.13667579590336998
H -0.743276 0.0 -0.471223 -0.5005963221422 -0.0 -0.25070826620997
H 0.757428 0.0 -0.482225 -0.30624893565941 -0.0 0.38738406167971
3
energy=0.0040759181939 config_type=nep2xyz pbc="T T T" virial="0.2510374344684171 0.9932743823596097 0.2853770772341512 0.5216205724976223 0.16971494416547683 0.6062475821334325 0.3255169216419186 0.38034825093278524 0.38540795328086475" Lattice="200.0 0.0 0.0 0.0 200.0 0.0 0.0 0.0 200.0" volume=8000000.0 Properties=species:S:1:pos:R:3:force:R:3
O -7.7e-05 0.0 0.119537 0.07186536894373999 -0.0 0.034193418695061
H -0.743216 0.0 -0.477615 -0.34755176429934 -0.0 -0.04578204224718
H 0.744448 0.0 -0.478573 0.27568639578923 -0.0 0.011588623638845
3
energy=0.0038476813797 config_type=nep2xyz pbc="T T T" virial="0.15856646711761613 0.15321821354798515 0.17567885397128635 0.5997165398725963 0.8087847909617053 0.06641045700294379 0.7927193845908644 0.5616155940819816 0.7239638390018865" Lattice="200.0 0.0 0.0 0.0 200.0 0.0 0.0 0.0 200.0" volume=8000000.0 Properties=species:S:1:pos:R:3:force:R:3
O -0.000686 0.0 0.118171 0.6457029567453 -0.0 0.21497154043599
H -0.747939 0.0 -0.463031 -0.5084818316566 -0.0 -0.35819628458270003
H 0.758854 0.0 -0.471516 -0.13722112638959 -0.0 0.14322474458033999
3
energy=0.00621261701 config_type=nep2xyz pbc="T T T" virial="0.5497677841287609 0.8749816484809851 0.12360384359555576 0.8434882314897764 0.2588838374710243 0.03279354932869005 0.9946505496203637 0.40166621165706073 0.3333915778405909" Lattice="200.0 0.0 0.0 0.0 200.0 0.0 0.0 0.0 200.0" volume=8000000.0 Properties=species:S:1:pos:R:3:force:R:3
O 0.000235 0.0 0.120278 -0.19976149032573 -0.0 -0.7128778375722999
H -0.757355 0.0 -0.485392 0.36492933521247 -0.0 0.4358373761698
H 0.753613 0.0 -0.482484 -0.16516784488674 -0.0 0.27704046183612996
3
energy=0.0040066284562000004 config_type=nep2xyz pbc="T T T" virial="0.6811241905723805 0.6630950494663141 0.9027173662816347 0.49982941909421597 0.29133018259827514 0.9434835463682183 0.9911682644592669 0.7795968548118557 0.4055015070724638" Lattice="200.0 0.0 0.0 0.0 200.0 0.0 0.0 0.0 200.0" volume=8000000.0 Properties=species:S:1:pos:R:3:force:R:3
O 0.00075 0.0 0.117677 -0.6927928331433 -0.0 0.08283435937905
H -0.767607 0.0 -0.468006 0.39970437458491 -0.0 0.22353416232813
H 0.755666 0.0 -0.458724 0.29308845769113 -0.0 -0.30636852170718
3
energy=0.0039951589427 config_type=nep2xyz pbc="T T T" virial="0.5407545359856166 0.6548763570988447 0.3541094488213621 0.8466675404893124 0.016453769250964645 0.9623273806585458 0.9556106371150429 0.15785805048661694 0.4910533122377766" Lattice="200.0 0.0 0.0 0.0 200.0 0.0 0.0 0.0 200.0" volume=8000000.0 Properties=species:S:1:pos:R:3:force:R:3
O -0.00021 0.0 0.119172 0.19756867848674 -0.0 0.1473694330232
H -0.743114 0.0 -0.473905 -0.4400284795006 -0.0 -0.15210985406806998
H 0.746462 0.0 -0.476507 0.24245979884570998 -0.0 0.004740421174959
3
energy=0.0012522844133000001 config_type=nep2xyz pbc="T T T" virial="0.8992801947573104 0.7237854599123685 0.3168020126789264 0.5144672665576402 0.15981782327453187 0.23067551527845842 0.6283927460415545 0.06891156348382299 0.34220416883803884" Lattice="200.0 0.0 0.0 0.0 200.0 0.0 0.0 0.0 200.0" volume=8000000.0 Properties=species:S:1:pos:R:3:force:R:3
O 0.00011 0.0 0.117637 -0.09986390362411 -0.0 -0.034421364413442
H -0.765543 0.0 -0.463719 0.22455464332047997 -0.0 0.055260888771659994
H 0.763798 0.0 -0.462363 -0.12469073969636998 -0.0 -0.020839524444944
3
energy=0.005899622876 config_type=nep2xyz pbc="T T T" virial="0.3550314295943686 0.5801656860614118 0.76047516049155 0.2673437192831646 0.6372374579573309 0.5254497094899861 0.5495613373247853 0.8581710186037176 0.3063733171935553" Lattice="200.0 0.0 0.0 0.0 200.0 0.0 0.0 0.0 200.0" volume=8000000.0 Properties=species:S:1:pos:R:3:force:R:3
O 0.00069 0.0 0.118974 -0.6002023863329 -0.0 -0.45217440376499995
H -0.767904 0.0 -0.477888 0.6050581924181 -0.0 0.45921843258289996
H 0.756922 0.0 -0.469351 -0.004855805825022 -0.0 -0.007044026563024
3
energy=0.00228176106 config_type=nep2xyz pbc="T T T" virial="0.7999926918533339 0.3797736782008343 0.18589864475135576 0.01776241005271506 0.16914919694993735 0.36775859572639547 0.7546000127074686 0.023162193664578723 0.2623908389889046" Lattice="200.0 0.0 0.0 0.0 200.0 0.0 0.0 0.0 200.0" volume=8000000.0 Properties=species:S:1:pos:R:3:force:R:3
O -7.6e-05 0.0 0.119053 0.06636544755564999 -0.0 -0.42179564843045997
H -0.759828 0.0 -0.473778 0.21750221639037 -0.0 0.18504200930351
H 0.761035 0.0 -0.474716 -0.28386766394602003 -0.0 0.23675363912695
3
energy=0.005469722094 config_type=nep2xyz pbc="T T T" virial="0.9329140889677013 0.01713926544590838 0.30079510044742097 0.19131671265501782 0.9312383111341263 0.580176447087857 0.5991474407365979 0.4521494774506938 0.32564896993931114" Lattice="200.0 0.0 0.0 0.0 200.0 0.0 0.0 0.0 200.0" volume=8000000.0 Properties=species:S:1:pos:R:3:force:R:3
O 0.000726 0.0 0.119343 -0.6344494213394 -0.0 -0.43329204699046003
H -0.763867 0.0 -0.48103 0.5191659284828 -0.0 0.4653325895651
H 0.75232 0.0 -0.472054 0.11528349329023 -0.0 -0.032040541100298
3
energy=0.007088506247 config_type=nep2xyz pbc="T T T" virial="0.4274579441125035 0.3935372775499558 0.10693215805533174 0.39978849683840545 0.3890629015644973 0.7422606325972789 0.4120249671750028 0.9177253021294566 0.53677207506266" Lattice="200.0 0.0 0.0 0.0 200.0 0.0 0.0 0.0 200.0" volume=8000000.0 Properties=species:S:1:pos:R:3:force:R:3
O -0.000816 0.0 0.119932 0.7311512052421001 -0.0 -0.26284492336764
H -0.741163 0.0 -0.476164 -0.46630271960999997 -0.0 -0.16055018102583
H 0.754142 0.0 -0.486253 -0.26484848476483996 -0.0 0.4233951039598399
3
energy=0.006422320477999999 config_type=nep2xyz pbc="T T T" virial="0.4342243199587864 0.49960300968474425 0.9098631239545496 0.05849683740665679 0.5263425504680138 0.2870012821907105 0.7174153239175067 0.8357691800570538 0.5322847016271169" Lattice="200.0 0.0 0.0 0.0 200.0 0.0 0.0 0.0 200.0" volume=8000000.0 Properties=species:S:1:pos:R:3:force:R:3
O -0.000513 0.0 0.120293 0.46037740415649997 -0.0 -0.28039064038409
H -0.739998 0.0 -0.4809 -0.39980680406173 -0.0 -0.0451817916542
H 0.748165 0.0 -0.487248 -0.06057059966114 -0.0 0.32557243203829
3
energy=0.009436872875 config_type=nep2xyz pbc="T T T" virial="0.3901828220671546 0.3936339139998084 0.44294162997520636 0.5519817698031984 0.5431918490092019 0.7168260591506348 0.6066745930643915 0.9146962401368127 0.6409355696965157" Lattice="200.0 0.0 0.0 0.0 200.0 0.0 0.0 0.0 200.0" volume=8000000.0 Properties=species:S:1:pos:R:3:force:R:3
O 0.000545 0.0 0.115508 -0.5339950727975 -0.0 0.6697002794418
H -0.772285 0.0 -0.449573 0.18887655863229 -0.0 -0.13777152687777
H 0.763614 0.0 -0.442833 0.34511851589972997 -0.0 -0.5319287521303999
3
energy=0.018363926959 config_type=nep2xyz pbc="T T T" virial="0.8168352959855306 0.9717262229805764 0.06918087136024564 0.8721424044060346 0.6335115067487649 0.11969638135557703 0.44460313249348304 0.9765360601686984 0.5979424023572103" Lattice="200.0 0.0 0.0 0.0 200.0 0.0 0.0 0.0 200.0" volume=8000000.0 Properties=species:S:1:pos:R:3:force:R:3
O 0.001322 0.0 0.120638 -1.1089405106647001 -0.0 -0.7953380458103
H -0.76566 0.0 -0.494964 0.8388576642937 -0.0 0.8405209128668999
H 0.744621 0.0 -0.478609 0.27008284550374 -0.0 -0.04518286662297
3
energy=0.0022938376555 config_type=nep2xyz pbc="T T T" virial="0.8396216004191266 0.43497117999551593 0.046173752031479776 0.7854561215556878 0.2462487939495973 0.9072580602054393 0.9361032661363506 0.7560176415649762 0.7285333529366408" Lattice="200.0 0.0 0.0 0.0 200.0 0.0 0.0 0.0 200.0" volume=8000000.0 Properties=species:S:1:pos:R:3:force:R:3
O -3e-06 0.0 0.116956 0.0031766692957910995 -0.0 0.4436658503303
H -0.759367 0.0 -0.457643 -0.15873461254341997 -0.0 -0.22303916544416
H 0.75942 0.0 -0.457684 0.15555794323462 -0.0 -0.2206266857534
3
energy=0.007811020553 config_type=nep2xyz pbc="T T T" virial="0.6622030644440366 0.20217397476472188 0.8455785262103146 0.06247584529282013 0.6440409382322981 0.06606890096426199 0.28723285013380095 0.6493667364163167 0.13088267680343402" Lattice="200.0 0.0 0.0 0.0 200.0 0.0 0.0 0.0 200.0" volume=8000000.0 Properties=species:S:1:pos:R:3:force:R:3
O 0.000585 0.0 0.115885 -0.5674552167882 -0.0 0.5728801232217
H -0.771413 0.0 -0.452797 0.22520691303552 -0.0 -0.07566636398311999
H 0.76211 0.0 -0.445565 0.34224830288541996 -0.0 -0.4972137609731
3
energy=0.0010565178135 config_type=nep2xyz pbc="T T T" virial="0.9069348967444214 0.8856249268205648 0.4185642525753148 0.34905980131232894 0.9852623736786178 0.7523964771097711 0.3952604127962518 0.7291067566482802 0.8428737690850802" Lattice="200.0 0.0 0.0 0.0 200.0 0.0 0.0 0.0 200.0" volume=8000000.0 Properties=species:S:1:pos:R:3:force:R:3
O -0.00011 0.0 0.117283 0.10265111942279001 -0.0 0.18703315023662
H -0.761662 0.0 -0.459563 -0.022663875929552 -0.0 -0.13253547454824
H 0.76341 0.0 -0.460922 -0.07998724366669 -0.0 -0.054497675688379994
3
energy=0.009774020199999999 config_type=nep2xyz pbc="T T T" virial="0.5904581107624924 0.15806429080181494 0.2372624809444257 0.11501784007645555 0.7210554540064852 0.5901494984579246 0.09421143999833492 0.1730300062795176 0.22687264186385692" Lattice="200.0 0.0 0.0 0.0 200.0 0.0 0.0 0.0 200.0" volume=8000000.0 Properties=species:S:1:pos:R:3:force:R:3
O 0.000736 0.0 0.117044 -0.7310385394955 -0.0 0.7280733905643999
H -0.758081 0.0 -0.462915 -0.0821724383611 -0.0 -0.08395565284195
H 0.746376 0.0 -0.453816 0.8132109778566 -0.0 -0.6441177398906
3
energy=0.0028697503310999998 config_type=nep2xyz pbc="T T T" virial="0.3954887856210135 0.9094955521503848 0.8322348901426276 0.07743555325144547 0.23825844783131522 0.07984632444231543 0.6256743097926666 0.17171528367296995 0.6153186326692163" Lattice="200.0 0.0 0.0 0.0 200.0 0.0 0.0 0.0 200.0" volume=8000000.0 Properties=species:S:1:pos:R:3:force:R:3
O -0.000216 0.0 0.11824 0.19079464114937 -0.0 -0.30329378016529
H -0.763963 0.0 -0.466472 0.21921500935921998 -0.0 0.078464567966
H 0.767402 0.0 -0.469145 -0.41000965050859 -0.0 0.22482921219929
3
energy=0.0004455374798 config_type=nep2xyz pbc="T T T" virial="0.5786091994391666 0.8822903101202484 0.770026902982842 0.3559142038293509 0.8803846449977724 0.5664459855518782 0.012464370388934887 0.6771755102491765 0.5439764880919198" Lattice="200.0 0.0 0.0 0.0 200.0 0.0 0.0 0.0 200.0" volume=8000000.0 Properties=species:S:1:pos:R:3:force:R:3
O -6.1e-05 0.0 0.11774 0.05745925801273 -0.0 0.19201248926985
H -0.757409 0.0 -0.463482 -0.10367216760318 -0.0 -0.11808500326822999
H 0.758384 0.0 -0.464241 0.04621290959045 -0.0 -0.07392748556798999
3
energy=0.0006773343963 config_type=nep2xyz pbc="T T T" virial="0.9288951724114984 0.05187893689377632 0.5155583794793236 0.8436099383570228 0.7473495448842312 0.4576515932065991 0.48631896499695415 0.44301907117219375 0.43045572351773664" Lattice="200.0 0.0 0.0 0.0 200.0 0.0 0.0 0.0 200.0" volume=8000000.0 Properties=species:S:1:pos:R:3:force:R:3
O 8.7e-05 0.0 0.118998 -0.07799675101043 -0.0 -0.22569227986444998
H -0.756515 0.0 -0.474353 0.10388293563282999 -0.0 0.14336358380011
H 0.755132 0.0 -0.473277 -0.025886184232133 -0.0 0.08232869606434
3
energy=0.0006997270495 config_type=nep2xyz pbc="T T T" virial="0.5134081972475252 0.8490596090796548 0.021723139609359565 0.8005164719350354 0.5911780034851619 0.8331619696036706 0.8624771536975047 0.6835720525373123 0.26555171174112313" Lattice="200.0 0.0 0.0 0.0 200.0 0.0 0.0 0.0 200.0" volume=8000000.0 Properties=species:S:1:pos:R:3:force:R:3
O -9.5e-05 0.0 0.117602 0.08982958227318999 -0.0 0.23645557487385
H -0.757403 0.0 -0.46218 -0.13418666083573 -0.0 -0.15267370185617998
H 0.758921 0.0 -0.46336 0.044357078562539995 -0.0 -0.08378187301767
3
energy=0.004910209305 config_type=nep2xyz pbc="T T T" virial="0.4722988262698019 0.011162221985535958 0.9278996240189439 0.018528679894689648 0.368646151766569 0.008056361685695124 0.7028434824450329 0.17572397461438127 0.6256067297055959" Lattice="200.0 0.0 0.0 0.0 200.0 0.0 0.0 0.0 200.0" volume=8000000.0 Properties=species:S:1:pos:R:3:force:R:3
O -0.000484 0.0 0.119811 0.4412937988317 -0.0 -0.13052904165318
H -0.74141 0.0 -0.47726 -0.42944680824854997 -0.0 -0.11117560875999
H 0.749116 0.0 -0.483251 -0.011846990626513 -0.0 0.24170465041317
3
energy=0.016644627372 config_type=nep2xyz pbc="T T T" virial="0.755780860599056 0.8606507952684881 0.8213877244792128 0.427385869260655 0.248329743965653 0.4928666424186432 0.5365370067363912 0.1460583139156889 0.8448276306511896" Lattice="200.0 0.0 0.0 0.0 200.0 0.0 0.0 0.0 200.0" volume=8000000.0 Properties=species:S:1:pos:R:3:force:R:3
O 0.001048 0.0 0.120781 -0.8671036330219999 -0.0 -0.918888161252
H -0.76492 0.0 -0.494406 0.8032955075506 -0.0 0.8057239482944
H 0.748239 0.0 -0.481439 0.06380812156872999 -0.0 0.11316421165671
3
energy=0.0029383722785999997 config_type=nep2xyz pbc="T T T" virial="0.07534511954208467 0.3124245974528779 0.07069606133321527 0.06324972018499675 0.14721714997678392 0.7663037699513993 0.026971640358751325 0.5726826897859875 0.9011858205310819" Lattice="200.0 0.0 0.0 0.0 200.0 0.0 0.0 0.0 200.0" volume=8000000.0 Properties=species:S:1:pos:R:3:force:R:3
O 0.000618 0.0 0.119019 -0.5589405838609 -0.0 -0.15767858950174998
H -0.75904 0.0 -0.477809 0.27569390279179 -0.0 0.29800319235880995
H 0.749201 0.0 -0.470161 0.28324668280363 -0.0 -0.14032460285706
3
energy=0.010008960934 config_type=nep2xyz pbc="T T T" virial="0.9645028676544343 0.41016870141374806 0.1836834951048094 0.35557326043166804 0.24218220003132196 0.017645386835238086 0.5988781622023103 0.8655176868040461 0.08876550489919943" Lattice="200.0 0.0 0.0 0.0 200.0 0.0 0.0 0.0 200.0" volume=8000000.0 Properties=species:S:1:pos:R:3:force:R:3
O 0.001152 0.0 0.117105 -1.0934080922071 -0.0 0.34814283017528996
H -0.770341 0.0 -0.465967 0.4660656063897 -0.0 0.24120009849215
H 0.752004 0.0 -0.451713 0.6273424858174 -0.0 -0.5893429295347
3
energy=0.0018184360775999999 config_type=nep2xyz pbc="T T T" virial="0.7883128289939074 0.6891208856746667 0.9353804875580766 0.47259687891747404 0.45876519595654763 0.35071219950753263 0.1462729602890499 0.7298821278667724 0.2984306414222978" Lattice="200.0 0.0 0.0 0.0 200.0 0.0 0.0 0.0 200.0" volume=8000000.0 Properties=species:S:1:pos:R:3:force:R:3
O 0.000304 0.0 0.117805 -0.27520206230058997 -0.0 -0.09403079178477
H -0.767012 0.0 -0.46625 0.33649004815934996 -0.0 0.15210922703909
H 0.76217 0.0 -0.462486 -0.06128798585876 -0.0 -0.05807843482069
3
energy=0.017030774887 config_type=nep2xyz pbc="T T T" virial="0.07751733983697595 0.9564280189315563 0.768951056645723 0.011672428896135179 0.5526267790228336 0.9261421962327235 0.8030015386951965 0.7783793479597108 0.6126489401713935" Lattice="200.0 0.0 0.0 0.0 200.0 0.0 0.0 0.0 200.0" volume=8000000.0 Properties=species:S:1:pos:R:3:force:R:3
O -0.000731 0.0 0.116504 0.6399568041989 -0.0 -0.23323534613066
H -0.776053 0.0 -0.449542 0.31636690987452 -0.0 -0.11958866516068
H 0.787683 0.0 -0.458583 -0.9563237166752 -0.0 0.35282401129134
3
energy=0.007453709432999999 config_type=nep2xyz pbc="T T T" virial="0.7740612500808034 0.6129870295124408 0.5836693387876832 0.3738013411344362 0.4360954711966084 0.2185251688946328 0.9894010674594163 0.6184790091430443 0.9821962340353934" Lattice="200.0 0.0 0.0 0.0 200.0 0.0 0.0 0.0 200.0" volume=8000000.0 Properties=species:S:1:pos:R:3:force:R:3
O -0.000286 0.0 0.120861 0.25095820967471 -0.0 -0.4853333266762
H -0.740992 0.0 -0.486799 -0.22439278788757 -0.0 0.14085359980207
H 0.745541 0.0 -0.490334 -0.026565421396873 -0.0 0.3444797264405
3
energy=0.015861491592 config_type=nep2xyz pbc="T T T" virial="0.79395337641154 0.4618075366967115 0.8298408067282673 0.8944361349407518 0.2661187377008051 0.12641395358636198 0.6222268330551736 0.25788999942715396 0.10517499420392995" Lattice="200.0 0.0 0.0 0.0 200.0 0.0 0.0 0.0 200.0" volume=8000000.0 Properties=species:S:1:pos:R:3:force:R:3
O -0.000832 0.0 0.121162 0.6843259081886 -0.0 -0.9926215397221999
H -0.747601 0.0 -0.485791 0.007873441287959 -0.0 0.22113852222479
H 0.760842 0.0 -0.496085 -0.6921993497801 -0.0 0.7714830187983
3
energy=0.018829558853 config_type=nep2xyz pbc="T T T" virial="0.21710949812455071 0.19004733039958632 0.6459873245653247 0.15170503022773685 0.9615502442369062 0.4134007053351625 0.9156759689921337 0.9535759976626816 0.7561107285196865" Lattice="200.0 0.0 0.0 0.0 200.0 0.0 0.0 0.0 200.0" volume=8000000.0 Properties=species:S:1:pos:R:3:force:R:3
O -0.001134 0.0 0.121602 0.9678056796925 -0.0 -0.7187323022201
H -0.733372 0.0 -0.487414 -0.5084026898453 -0.0 -0.037023525617575
H 0.751413 0.0 -0.501438 -0.4594029898472 -0.0 0.7557558267536
3
energy=0.009163208982 config_type=nep2xyz pbc="T T T" virial="0.8892665432657876 0.9205699558571658 0.7906329949765749 0.8000761775732927 0.20464806332697782 0.8369135392384499 0.34989521660053 0.0346656633714193 0.059324322095704596" Lattice="200.0 0.0 0.0 0.0 200.0 0.0 0.0 0.0 200.0" volume=8000000.0 Properties=species:S:1:pos:R:3:force:R:3
O -0.000722 0.0 0.116994 0.646422908298 -0.0 -0.11585642562684
H -0.767901 0.0 -0.453481 0.081620050113 -0.0 -0.18412287588113
H 0.779399 0.0 -0.462419 -0.728042958411 -0.0 0.29997930150797003
3
energy=0.0040906269234999995 config_type=nep2xyz pbc="T T T" virial="0.7249642675914229 0.31563588146088384 0.5656206946440896 0.5513611659214244 0.2842600513415464 0.6339244582752062 0.8842415915893737 0.5359384793213562 0.8010445862380289" Lattice="200.0 0.0 0.0 0.0 200.0 0.0 0.0 0.0 200.0" volume=8000000.0 Properties=species:S:1:pos:R:3:force:R:3
O -0.000268 0.0 0.119976 0.23238696551360002 -0.0 -0.5505869187258999
H -0.752143 0.0 -0.479896 0.05404691860427 -0.0 0.18313225768599
H 0.756413 0.0 -0.483216 -0.28643388411787 -0.0 0.36745466147354
3
energy=0.015481154719 config_type=nep2xyz pbc="T T T" virial="0.41637243161367876 0.3393364260189572 0.34540407576888377 0.17257091899976373 0.022614287138104427 0.5547331309680136 0.7658352343226402 0.49286259401636157 0.7561105756399724" Lattice="200.0 0.0 0.0 0.0 200.0 0.0 0.0 0.0 200.0" volume=8000000.0 Properties=species:S:1:pos:R:3:force:R:3
O -7.2e-05 0.0 0.118033 0.07295606850925 -0.0 0.8834059225179
H -0.738454 0.0 -0.465755 -0.8401093459612999 -0.0 -0.47044199981949997
H 0.739598 0.0 -0.466644 0.7671532796202 -0.0 -0.41296392399929
3
energy=0.0043182393105000005 config_type=nep2xyz pbc="T T T" virial="0.16646666035633917 0.39200271572565515 0.3029595405435743 0.5509425746324803 0.18784734538775116 0.0002509460189684676 0.32751946215765826 0.18953966955039536 0.40899366045555474" Lattice="200.0 0.0 0.0 0.0 200.0 0.0 0.0 0.0 200.0" volume=8000000.0 Properties=species:S:1:pos:R:3:force:R:3
O -0.00053 0.0 0.11769 0.5108732230531999 -0.0 0.43331529172661
H -0.748505 0.0 -0.460199 -0.5543531210285999 -0.0 -0.41394157925921
H 0.756937 0.0 -0.466754 0.04347989927629 -0.0 -0.019373712554126
3
energy=0.003165455637 config_type=nep2xyz pbc="T T T" virial="0.7057841060848679 0.1182029450978277 0.8027617277001056 0.5037325319473769 0.9825272219253056 0.30902015894802837 0.9102337973260805 0.004554306851381029 0.2550200796855411" Lattice="200.0 0.0 0.0 0.0 200.0 0.0 0.0 0.0 200.0" volume=8000000.0 Properties=species:S:1:pos:R:3:force:R:3
O -0.000311 0.0 0.117974 0.29893822309062 -0.0 0.38721278433415995
H -0.748455 0.0 -0.463794 -0.4654285692293 -0.0 -0.30969619702629
H 0.753407 0.0 -0.467644 0.16649034743957 -0.0 -0.07751658730786999
3
energy=0.006467548087 config_type=nep2xyz pbc="T T T" virial="0.18960595228560806 0.28192167634606224 0.49079203949230554 0.656897122720902 0.9293828429768771 0.8390118095055051 0.25259247419103814 0.33323385421479257 0.5854855457592204" Lattice="200.0 0.0 0.0 0.0 200.0 0.0 0.0 0.0 200.0" volume=8000000.0 Properties=species:S:1:pos:R:3:force:R:3
O -0.000853 0.0 0.11875 0.8003010278863 -0.0 0.16470488415353998
H -0.742262 0.0 -0.466582 -0.659003078317 -0.0 -0.39687821794496997
H 0.755842 0.0 -0.477139 -0.14129794913567 -0.0 0.23217333379143001
3
energy=0.0013488408054 config_type=nep2xyz pbc="T T T" virial="0.5650898379029416 0.5803982232867486 0.012863890160522695 0.20699451195931506 0.9977261697332505 0.4084248960103074 0.007092877164283529 0.1349918846575595 0.07577402742524764" Lattice="200.0 0.0 0.0 0.0 200.0 0.0 0.0 0.0 200.0" volume=8000000.0 Properties=species:S:1:pos:R:3:force:R:3
O 0.000432 0.0 0.118008 -0.39629260843531 -0.0 -4.9449128439890004e-05
H -0.76362 0.0 -0.468657 0.25834893738562 -0.0 0.15245766869107
H 0.75674 0.0 -0.463308 0.13794367104969 -0.0 -0.15240821969402
3
energy=0.0018105440116 config_type=nep2xyz pbc="T T T" virial="0.7293873689981138 0.7688585399311647 0.039306102037474755 0.11200373931093499 0.8678775733830683 0.3462490490664857 0.9735643985045307 0.5314635690715371 0.5864323559405348" Lattice="200.0 0.0 0.0 0.0 200.0 0.0 0.0 0.0 200.0" volume=8000000.0 Properties=species:S:1:pos:R:3:force:R:3
O 0.000313 0.0 0.117243 -0.29076416750162 -0.0 0.14892089438418
H -0.766438 0.0 -0.461862 0.22174330988846 -0.0 0.035843479279071
H 0.76146 0.0 -0.457992 0.06902085761316 -0.0 -0.18476437379334001
3
energy=0.003034239199 config_type=nep2xyz pbc="T T T" virial="0.188480170884463 0.6800466220732206 0.951369922299512 0.41991391005830436 0.3905076535211155 0.4216745672757487 0.7550509046212753 0.37150217394151985 0.4248009841683219" Lattice="200.0 0.0 0.0 0.0 200.0 0.0 0.0 0.0 200.0" volume=8000000.0 Properties=species:S:1:pos:R:3:force:R:3
O 0.00053 0.0 0.11927 -0.4827630715772 -0.0 -0.10951889369
H -0.754489 0.0 -0.479254 0.13273256632132 -0.0 0.24544416712567
H 0.746056 0.0 -0.472699 0.35003050568951 -0.0 -0.13592527343566999
3
energy=0.012235173991 config_type=nep2xyz pbc="T T T" virial="0.3306887265109564 0.5039869762921072 0.7563405081461623 0.9987046513425867 0.1323307881043554 0.39321590875027956 0.22329371347741822 0.5235355614017568 0.24345537987600996" Lattice="200.0 0.0 0.0 0.0 200.0 0.0 0.0 0.0 200.0" volume=8000000.0 Properties=species:S:1:pos:R:3:force:R:3
O 0.000453 0.0 0.118783 -0.44538204946279997 -0.0 0.5717257481261
H -0.742476 0.0 -0.474931 -0.4401310026415 -0.0 -0.10870994695150998
H 0.735266 0.0 -0.469326 0.885513047768 -0.0 -0.46301579987369995
3
energy=0.007730105195 config_type=nep2xyz pbc="T T T" virial="0.8413332552467626 0.7824875756532049 0.6821010873349169 0.6316302274660126 0.7313627832120202 0.9109685119760961 0.22621261035952167 0.5844873835816214 0.46623207618149365" Lattice="200.0 0.0 0.0 0.0 200.0 0.0 0.0 0.0 200.0" volume=8000000.0 Properties=species:S:1:pos:R:3:force:R:3
O -0.001022 0.0 0.118953 0.9047001822552999 -0.0 -0.30834694036972
H -0.751041 0.0 -0.467137 -0.28285004881434 -0.0 -0.19836483660927
H 0.76731 0.0 -0.479784 -0.62185013691 -0.0 0.5067117756781
3
energy=0.0041093077038999995 config_type=nep2xyz pbc="T T T" virial="0.44491399256907427 0.9756489046428084 0.36482200305085066 0.9742818289155591 0.6026682653308072 0.5792877562968706 0.6067689541623239 0.41355314303656243 0.35829086781544206" Lattice="200.0 0.0 0.0 0.0 200.0 0.0 0.0 0.0 200.0" volume=8000000.0 Properties=species:S:1:pos:R:3:force:R:3
O 0.000668 0.0 0.11798 -0.6337869777973 -0.0 0.29077241817963
H -0.758731 0.0 -0.469897 0.097514020592 -0.0 0.10009381511736999
H 0.748104 0.0 -0.461636 0.5362729572053 -0.0 -0.390866233297
3
energy=0.0012010640377 config_type=nep2xyz pbc="T T T" virial="0.4764365739083264 0.44047884448447616 0.9811215032839528 0.7005427186728904 0.7131007749111844 0.3124795392484603 0.6440512630704073 0.10652163785017577 0.767651786933949" Lattice="200.0 0.0 0.0 0.0 200.0 0.0 0.0 0.0 200.0" volume=8000000.0 Properties=species:S:1:pos:R:3:force:R:3
O 0.000405 0.0 0.11848 -0.37366846706337 -0.0 0.026152926653161997
H -0.757995 0.0 -0.472223 0.11716677006172999 -0.0 0.13235606187026
H 0.751548 0.0 -0.467212 0.25650169700164 -0.0 -0.15850898834997
3
energy=0.004099299523499999 config_type=nep2xyz pbc="T T T" virial="0.1638424529061202 0.8707291674611681 0.7460521861839033 0.8073878776978083 0.6506046466461488 0.25777612529111027 0.514379160180823 0.614293754189078 0.9461170812560458" Lattice="200.0 0.0 0.0 0.0 200.0 0.0 0.0 0.0 200.0" volume=8000000.0 Properties=species:S:1:pos:R:3:force:R:3
O 0.000382 0.0 0.11647 -0.36473685812984996 -0.0 0.40063340084211
H -0.768284 0.0 -0.456174 0.17187954400893998 -0.0 -0.06354703641477
H 0.762201 0.0 -0.451445 0.19285731368728 -0.0 -0.33708636486097
3
energy=0.019223988701000002 config_type=nep2xyz pbc="T T T" virial="0.32948089736848407 0.48324540820646655 0.43223594026465073 0.9092388426369591 0.11512985972248513 0.47468638870279456 0.15751205149245096 0.12204805254182816 0.5833990635745397" Lattice="200.0 0.0 0.0 0.0 200.0 0.0 0.0 0.0 200.0" volume=8000000.0 Properties=species:S:1:pos:R:3:force:R:3
O 0.000955 0.0 0.121604 -0.8453781672762999 -0.0 -0.42642726954017995
H -0.74218 0.0 -0.50036 0.10560949461966 -0.0 0.5626692424782
H 0.726981 0.0 -0.488545 0.7397686735239 -0.0 -0.13624197120349998
3
energy=0.0030269889053999998 config_type=nep2xyz pbc="T T T" virial="0.6593268271749727 0.9081690699718181 0.3252758909693706 0.6880902972253025 0.9699498190056663 0.24001743701558964 0.05887410904543766 0.45466487420621604 0.8875678423721154" Lattice="200.0 0.0 0.0 0.0 200.0 0.0 0.0 0.0 200.0" volume=8000000.0 Properties=species:S:1:pos:R:3:force:R:3
O 0.000156 0.0 0.116559 -0.1481891281485 -0.0 0.34262422713954
H -0.766982 0.0 -0.455478 0.10171932703981999 -0.0 -0.11570594517609
H 0.764494 0.0 -0.453545 0.046469801108679994 -0.0 -0.22691828196345
3
energy=0.007010756387999999 config_type=nep2xyz pbc="T T T" virial="0.4170191864589252 0.6424413747764623 0.7035593883401988 0.7729722719393106 0.15086820121815137 0.45031624546149385 0.42414758428284893 0.9833571423815585 0.7514718198781124" Lattice="200.0 0.0 0.0 0.0 200.0 0.0 0.0 0.0 200.0" volume=8000000.0 Properties=species:S:1:pos:R:3:force:R:3
O -7.5e-05 0.0 0.115668 0.07352557473523 -0.0 0.6921372539641
H -0.765126 0.0 -0.447001 -0.17249755998938998 -0.0 -0.37332542453852
H 0.766314 0.0 -0.447925 0.09897198525416001 -0.0 -0.31881182769106
3
energy=0.0038393860378 config_type=nep2xyz pbc="T T T" virial="0.5929317598257285 0.9250350046186885 0.32748265304688473 0.2798084488529763 0.054689178521165394 0.6763147417051187 0.5468349732867026 0.4424864985685152 0.9298652646179548" Lattice="200.0 0.0 0.0 0.0 200.0 0.0 0.0 0.0 200.0" volume=8000000.0 Properties=species:S:1:pos:R:3:force:R:3
O -0.00048 0.0 0.119537 0.41924207074126 -0.0 -0.4566622184233
H -0.75266 0.0 -0.475114 -0.03176144052781 -0.0 0.06332983028051001
H 0.760297 0.0 -0.48105 -0.38748063021345003 -0.0 0.3933323868419
3